90
# ORCA AIMD Position Step 0, t=0.00 fs, E_Pot=-6934633.06343014 kJ mol^-1, Unit is Angstrom
 C     -2.9919260134     -3.7981220170     -1.1656120052
 C     -2.8798260129     -4.1049220184      0.1866880008
 C     -2.9565260132     -3.0977220139      1.1540880052
 C     -3.1507260141     -1.7743220079      0.7223880032
 C     -3.2606260146     -1.4484220065     -0.6308120028
 C     -3.1813260142     -2.4804220111     -1.5915120071
 N     -3.2658260146     -0.5927220027      1.4305880064
 C     -3.4309260154      0.4804780022      0.5754880026
 C     -3.4364260154     -0.0323220001     -0.7228120032
 C     -3.5730260160      1.8555780083      0.8298880037
 C     -3.7284260167      2.7169780122     -0.2600120012
 C     -3.7413260168      2.2279780100     -1.5617120070
 C     -3.5958260161      0.8589780038     -1.8057120081
 C     -3.2251260144     -0.4907220022      2.8840880129
 C     -1.8042260081     -0.2646220012      3.4004880152
 C     -1.7143260077     -0.2481220011      4.9267880221
 C     -0.3008980013     -0.0231900001      5.4541970244
 P     -0.1890800008     -0.1222170005      7.2280480324
 O      1.3247820059      0.2555740011      7.5849680340
 O     -0.9625480043      1.1657370052      7.7821570349
 O     -0.6316700028     -1.3762000062      7.8992110354
 C     -3.9145260175      3.1882780143     -2.7271120122
 C     -2.9072260130     -4.9128220220     -2.1954120098
 H     -2.8646260128     -3.3465220150      2.2064880099
 H     -3.2659260146     -2.2377220100     -2.6462120119
 H     -3.5626260160      2.2526780101      1.8395880082
 H     -3.8405260172      3.7848780170     -0.0862120004
 H     -3.6039260161      0.4856780022     -2.8256120127
 H     -3.8951260174      0.3244780015      3.1751880142
 H     -3.6530260164     -1.4099220063      3.2985880148
 H     -1.4012260063      0.6723780030      2.9965880134
 H     -1.1520260052     -1.0641220048      3.0264880136
 H     -2.3845280107      0.5184000023      5.3332530239
 H     -2.0809950093     -1.2085180054      5.3089910238
 H      0.3735620017     -0.7719740035      5.0240840225
 H      0.0681570003      0.9590560043      5.1421600230
 H      1.5567890070      0.0677200003      8.5131900381
 H     -2.7301260122     -5.1318220230      0.5119880023
 H     -1.1132060050      1.1337130051      8.7451030392
 H     -2.7954260125     -5.8523220262     -1.6957120076
 H     -2.0646260092     -4.7456220213     -2.8335120127
 H     -3.8020260170     -4.9250220221     -2.7821120125
 H     -3.9209260176      2.6379780118     -3.6448120163
 H     -3.1049260139      3.8876780174     -2.7363120123
 H     -4.8398260217      3.7149780166     -2.6207120117
 C     -0.2260660010     -4.0316790181     -2.8100810126
 C     -0.1139660005     -4.3384790194     -1.4577810065
 C     -0.1906660009     -3.3312790149     -0.4903810022
 C     -0.3848660017     -2.0078790090     -0.9220810041
 C     -0.4947660022     -1.6819790075     -2.2752810102
 C     -0.4154660019     -2.7139790122     -3.2359810145
 N     -0.4999660022     -0.8262790037     -0.2138810010
 C     -0.6650660030      0.2469210011     -1.0689810048
 C     -0.6705660030     -0.2658790012     -2.3672810106
 C     -0.8071660036      1.6220210073     -0.8145810036
 C     -0.9625660043      2.4834210111     -1.9044810085
 C     -0.9754660044      1.9944210089     -3.2061810144
 C     -0.8299660037      0.6254210028     -3.4501810155
 C     -0.4592660021     -0.7242790032      1.2396190056
 C      0.9616340043     -0.4981790022      1.7560190079
 C      1.0515340047     -0.4816790022      3.2823190147
 C      2.4649620110     -0.2567470011      3.8097290171
 P      2.5767800115     -0.3557740016      5.5835800250
 O      4.0906420183      0.0220180001      5.9405000266
 O      1.8033120081      0.9321810042      6.1376890275
 O      2.1341900096     -1.6097570072      6.2547420280
 C     -1.1486660051      2.9547210132     -4.3715810196
 C     -0.1413660006     -5.1463790230     -3.8398810172
 H     -0.0987660004     -3.5800790160      0.5620190025
 H     -0.5000660022     -2.4712790111     -4.2906810192
 H     -0.7967660036      2.0191210090      0.1951190009
 H     -1.0746660048      3.5513210159     -1.7306810078
 H     -0.8380660038      0.2521210011     -4.4700810200
 H     -1.1292660051      0.0909210004      1.5307190069
 H     -0.8871660040     -1.6434790074      1.6541190074
 H      1.3646340061      0.4388210020      1.3521190061
 H      1.6138340072     -1.2976790058      1.3820190062
 H      0.3813320017      0.2848440013      3.6887850165
 H      0.6848650031     -1.4420740065      3.6645230164
 H      3.1394220141     -1.0055310045      3.3796150151
 H      2.8340170127      0.7254990032      3.4976910157
 H      4.3226490194     -0.1658370007      6.8687210308
 H      0.0357340002     -5.3653790240     -1.1324810051
 H      1.6526540074      0.9001560040      7.1006340318
 H     -0.0295660001     -6.0858790273     -3.3401810150
 H      0.7012340031     -4.9791790223     -4.4779810201
 H     -1.0361660046     -5.1585790231     -4.4265810198
 H     -1.1550660052      2.4044210108     -5.2892810237
 H     -0.3390660015      3.6541210164     -4.3807810196
 H     -2.0739660093      3.4814210156     -4.2651810191
90
# ORCA AIMD Position Step 10, t=5.00 fs, E_Pot=-6935118.87184635 kJ mol^-1, Unit is Angstrom
 C     -2.9817089165     -3.7947102952     -1.1632997577
 C     -2.8876791576     -4.0694297696      0.2219861024
 C     -2.9398916762     -3.0919433392      1.1643175542
 C     -3.1322433520     -1.7903138670      0.7354675774
 C     -3.2796704718     -1.4424126499     -0.6469337152
 C     -3.1988278146     -2.4635455779     -1.5917584337
 N     -3.2629717417     -0.6023741603      1.4371720904
 C     -3.4189396056      0.4737334762      0.5780008725
 C     -3.4595464241     -0.0184556316     -0.7325603216
 C     -3.5673709438      1.8314341616      0.8281401583
 C     -3.7193992030      2.7072369149     -0.2660036332
 C     -3.7390752834      2.2169589784     -1.5643990792
 C     -3.5780967636      0.8529145891     -1.7958948145
 C     -3.2467857547     -0.4849083871      2.8765988693
 C     -1.8131125358     -0.2642518390      3.4297587582
 C     -1.7135573319     -0.2561566518      4.9300647575
 C     -0.3156178486     -0.0246127110      5.4643994261
 P     -0.2077788662     -0.1244232009      7.2197405183
 O      1.2850945816      0.2262792202      7.7100627248
 O     -0.9629228887      1.1699199501      7.7793877443
 O     -0.6535745773     -1.3848667758      7.8919129895
 C     -3.9297933991      3.1809240158     -2.7155674319
 C     -2.9156897372     -4.8963162782     -2.1858937213
 H     -2.8371728513     -3.3044218906      2.2288904555
 H     -3.2629315500     -2.2728202263     -2.6635616589
 H     -3.5501495170      2.3198150104      1.8122259905
 H     -3.8600269316      3.7701294821     -0.0835546768
 H     -3.6042082407      0.4734550592     -2.8116206088
 H     -3.9291244038      0.3312557076      3.1788122430
 H     -3.6497477534     -1.3866487020      3.3541959250
 H     -1.4751569587      0.7016033528      3.0469548785
 H     -1.1943796011     -1.0179537513      3.0633538902
 H     -2.3497374273      0.5753083069      5.2686051569
 H     -2.1293213879     -1.1639632180      5.3826500262
 H      0.3425367714     -0.7984004040      5.1919259790
 H      0.0073123259      0.9662427719      5.2090561930
 H      1.4826006351     -0.0591032188      8.6281327250
 H     -2.7724360397     -5.1229294312      0.4813947361
 H     -1.0548233410      1.1028689099      8.7331839741
 H     -2.7532571845     -5.8746256099     -1.6682653241
 H     -2.0923079583     -4.7525431649     -2.8693742303
 H     -3.8526621289     -4.9694274520     -2.7973319734
 H     -3.9728714870      2.6244757081     -3.6773085915
 H     -3.1560188882      3.9826904731     -2.7283267849
 H     -4.8759112243      3.7711230235     -2.6075832017
 C     -0.2335982244     -4.0263885947     -2.8149763920
 C     -0.1014489215     -4.3348680722     -1.4559704598
 C     -0.1883888879     -3.3471768445     -0.4877636269
 C     -0.3623253573     -2.0222909569     -0.9224827209
 C     -0.4861740598     -1.7011658842     -2.2878899180
 C     -0.4266951032     -2.7260146685     -3.2341314567
 N     -0.4938405572     -0.8375620300     -0.2096448132
 C     -0.6670988213      0.2421482246     -1.0591690029
 C     -0.6629518914     -0.2605042171     -2.3822653341
 C     -0.8086786049      1.6149136441     -0.8195587990
 C     -0.9483975507      2.4816726631     -1.9096064149
 C     -0.9838491694      2.0084485343     -3.2149539373
 C     -0.8333614891      0.6378372141     -3.4528404059
 C     -0.4473732211     -0.7311789019      1.2182350595
 C      0.9639054680     -0.4878696652      1.7648061645
 C      1.0597690004     -0.5030390610      3.2766910339
 C      2.4640103970     -0.2613322781      3.8201823218
 P      2.5821395855     -0.3550640826      5.5833399132
 O      4.1067526304      0.0219009080      5.9290801574
 O      1.8357403830      0.9624655054      6.0406919595
 O      2.1416033149     -1.6122858262      6.2191870546
 C     -1.1436893023      2.9637729321     -4.3766595091
 C     -0.1450648155     -5.1261866354     -3.8309280414
 H     -0.0990864019     -3.6056924577      0.5603804389
 H     -0.4889996559     -2.4834501583     -4.2979303567
 H     -0.8322884921      2.0243306235      0.1846660359
 H     -0.9593379137      3.5574415328     -1.7344638341
 H     -0.8682027653      0.2479706574     -4.4713574010
 H     -1.1087708812      0.0457403789      1.4791860028
 H     -0.8389500167     -1.6865265948      1.5881192406
 H      1.3708011900      0.4454658909      1.3546056244
 H      1.6370393771     -1.2390095519      1.3321899768
 H      0.4515858724      0.2751577443      3.6213935392
 H      0.7011114256     -1.4792982357      3.6183782249
 H      3.1763321481     -0.9961533007      3.4303526721
 H      2.7520537641      0.7762892725      3.5835739412
 H      4.3706519073     -0.2865537200      6.7907512618
 H      0.0891308802     -5.3556407969     -1.1382050792
 H      1.9766454972      1.4409282779      6.9950627250
 H      0.0021665758     -6.1211432666     -3.3458650625
 H      0.7746920695     -4.9665886750     -4.4466895801
 H     -1.0246641485     -5.1411752595     -4.5217114724
 H     -1.1608914785      2.3941666756     -5.3342443464
 H     -0.3313666114      3.7339346997     -4.3552880270
 H     -2.1245769778      3.4801464538     -4.2762706456
90
# ORCA AIMD Position Step 20, t=10.00 fs, E_Pot=-6935327.88494644 kJ mol^-1, Unit is Angstrom
 C     -2.9883990737     -3.7812298073     -1.1631700028
 C     -2.8988605752     -4.0549372637      0.2248146117
 C     -2.9284009523     -3.0729775207      1.1924416972
 C     -3.1302247140     -1.7834491725      0.7289667682
 C     -3.2979142679     -1.4525421711     -0.6600712009
 C     -3.2148638118     -2.4627456424     -1.5875260433
 N     -3.2663532158     -0.6114428866      1.4587100598
 C     -3.4164230364      0.4674099463      0.5853047108
 C     -3.4789148958     -0.0146893730     -0.7448635042
 C     -3.5629595664      1.8286020178      0.8269415461
 C     -3.7153031898      2.6854502808     -0.2571752307
 C     -3.7429412592      2.2111569183     -1.5788760176
 C     -3.5791401298      0.8524343438     -1.7936376366
 C     -3.2591830380     -0.4795277322      2.8844248372
 C     -1.8450615961     -0.2533656066      3.4701619135
 C     -1.7376938159     -0.2585014161      4.9501709834
 C     -0.3600863034     -0.0146868358      5.4879813555
 P     -0.2355145035     -0.1411687951      7.2306226829
 O      1.2414228304      0.1716881920      7.9190846918
 O     -0.9740436585      1.1881980412      7.7739178547
 O     -0.6745015146     -1.3883987996      7.8790166435
 C     -3.9531815554      3.1793684860     -2.7017523411
 C     -2.9408966314     -4.8926774198     -2.1701364464
 H     -2.8216419446     -3.2938985520      2.2441386492
 H     -3.2814912066     -2.2788586059     -2.6543638080
 H     -3.5365681679      2.2793555821      1.8016448621
 H     -3.8617354685      3.7493034666     -0.0751621919
 H     -3.5931005028      0.4632781851     -2.8077224289
 H     -3.9204501201      0.3358407747      3.1726372371
 H     -3.6700554882     -1.3954253319      3.3514097673
 H     -1.5163637598      0.7367870692      3.1197898637
 H     -1.2102240076     -1.0838826904      3.1132583977
 H     -2.3364147567      0.6042238672      5.2803315248
 H     -2.1886066111     -1.1555331729      5.4122261138
 H      0.3251551053     -0.8845709578      5.3239859515
 H     -0.0288026812      0.9880312862      5.2049789866
 H      1.2880887865     -0.2890741491      8.7548498844
 H     -2.7899520078     -5.0933618363      0.5067979674
 H     -1.0469004514      1.0841098348      8.7370258162
 H     -2.7387871457     -5.8427509951     -1.7052872851
 H     -2.1722740714     -4.7544429617     -2.9190348471
 H     -3.8538730166     -5.0036129294     -2.7366072201
 H     -3.9956319361      2.6858810084     -3.6609195075
 H     -3.2113661788      3.9718059205     -2.7362781528
 H     -4.8853809853      3.7265686055     -2.5971690729
 C     -0.2293236793     -4.0286344456     -2.8226847406
 C     -0.0836381785     -4.3230710467     -1.4510622400
 C     -0.1755506114     -3.3471908726     -0.4866089203
 C     -0.3394210636     -2.0296297274     -0.9221364561
 C     -0.4751281392     -1.7126535433     -2.3068496053
 C     -0.4331526635     -2.7270177050     -3.2340980171
 N     -0.4804809681     -0.8432651388     -0.2040948798
 C     -0.6606065432      0.2341278487     -1.0600837827
 C     -0.6566629944     -0.2539175846     -2.4032426557
 C     -0.7998701053      1.6098896314     -0.8242825519
 C     -0.9245394760      2.4722594018     -1.9007141350
 C     -0.9843425844      2.0119160297     -3.2373245222
 C     -0.8370392330      0.6428931510     -3.4508055315
 C     -0.4138046839     -0.7472700151      1.1833117178
 C      0.9824939932     -0.4819602386      1.7566818744
 C      1.0842124977     -0.5304165888      3.2461362157
 C      2.4673356535     -0.2606589114      3.8157224065
 P      2.5944266112     -0.3521762579      5.5883470546
 O      4.1335373562      0.0233494490      5.9149693193
 O      1.9014889125      1.0582432771      5.8937197710
 O      2.1486728705     -1.6274658838      6.1852124462
 C     -1.1401369180      2.9699367050     -4.3785649119
 C     -0.1341730696     -5.1141265792     -3.8320047704
 H     -0.0916157086     -3.6115719583      0.5675822221
 H     -0.4962225600     -2.5162920366     -4.2942861400
 H     -0.8369917434      2.0178723808      0.1803189872
 H     -0.9047132796      3.5441912344     -1.7200521727
 H     -0.8837237405      0.2648854816     -4.4687028681
 H     -1.1022778085      0.0864168514      1.3994572678
 H     -0.7747224852     -1.7154320706      1.5192915522
 H      1.3346241191      0.4933564836      1.3731986782
 H      1.6462517298     -1.2341640892      1.2912794726
 H      0.4620917861      0.3332006856      3.5490411272
 H      0.7122652935     -1.5067110977      3.5834996090
 H      3.2288088541     -0.9608845461      3.4279906012
 H      2.7499906210      0.7691038741      3.5925932165
 H      4.4275482431     -0.4482853544      6.7293041694
 H      0.1083801810     -5.3566146962     -1.1606611624
 H      2.3223975644      1.7287397204      6.3699680205
 H     -0.0379790432     -6.0907729272     -3.3913691785
 H      0.7667324059     -4.9726784100     -4.4227167030
 H     -0.9410734900     -5.1534598064     -4.5569645884
 H     -1.1208100935      2.4599718366     -5.3297222131
 H     -0.3830364559      3.7410815835     -4.3861540909
 H     -2.0740349147      3.4883300926     -4.3490913105
90
# ORCA AIMD Position Step 30, t=15.00 fs, E_Pot=-6935397.71049914 kJ mol^-1, Unit is Angstrom
 C     -3.0085344496     -3.7689782544     -1.1571771687
 C     -2.9100771045     -4.0522153714      0.2108297326
 C     -2.9239424064     -3.0518907054      1.2119372843
 C     -3.1422932116     -1.7623877655      0.7181848305
 C     -3.3135160185     -1.4588875955     -0.6563845465
 C     -3.2278674291     -2.4768150633     -1.5885395548
 N     -3.2731529651     -0.6110933204      1.4724235111
 C     -3.4244332757      0.4592947466      0.5899014249
 C     -3.4887731550     -0.0302575920     -0.7382790946
 C     -3.5579921585      1.8305411285      0.8289636329
 C     -3.7181462815      2.6649075321     -0.2514457302
 C     -3.7499545937      2.2109529990     -1.5853928264
 C     -3.5969972986      0.8566071418     -1.8087228506
 C     -3.2642687139     -0.4814957673      2.9101808948
 C     -1.8786878160     -0.2505379428      3.4988521706
 C     -1.7898527997     -0.2522595753      4.9919183174
 C     -0.3982165717     -0.0118157613      5.5156909807
 P     -0.2578180853     -0.1533521174      7.2629486288
 O      1.2080823861      0.1316693600      8.0999961844
 O     -0.9945095163      1.2102123066      7.7679065869
 O     -0.7044221939     -1.4048516594      7.8667604360
 C     -3.9792369395      3.1819070624     -2.6894437231
 C     -2.9689009978     -4.8936278892     -2.1569159393
 H     -2.8153268205     -3.3017174660      2.2729963367
 H     -3.3192060526     -2.2521616330     -2.6494989374
 H     -3.5262518055      2.2175990300      1.8625247378
 H     -3.8457345066      3.7267425804     -0.0640857472
 H     -3.5801925709      0.4603006841     -2.8174741866
 H     -3.9348628782      0.3619414245      3.1702512590
 H     -3.7052922667     -1.3913543864      3.3106325547
 H     -1.4928814164      0.7116641679      3.1514716076
 H     -1.2714349080     -1.0442836897      3.1567253839
 H     -2.3798826431      0.5923035969      5.3678173566
 H     -2.2303020016     -1.1529882901      5.4056028269
 H      0.2433385444     -0.8333891537      5.2876539928
 H     -0.0173479750      0.9294279486      5.1628810221
 H      1.0842039420     -0.5684873378      8.8093382766
 H     -2.7802398362     -5.0854439680      0.5541094383
 H     -1.0745879615      1.1221610313      8.7285970898
 H     -2.7185756406     -5.8695724698     -1.6963906898
 H     -2.2655150465     -4.7219174065     -2.9604404627
 H     -3.9515260712     -5.0188789103     -2.6633089218
 H     -3.9935085774      2.7094374689     -3.6849520727
 H     -3.1971540818      3.9520730555     -2.7307300463
 H     -4.9608427037      3.6694445837     -2.5580482403
 C     -0.2179637448     -4.0333913880     -2.8207773610
 C     -0.0643123071     -4.3159480180     -1.4570183391
 C     -0.1535730552     -3.3330328358     -0.4817699392
 C     -0.3210515151     -2.0234435242     -0.9314376814
 C     -0.4638649228     -1.7024220653     -2.3136405265
 C     -0.4334456180     -2.7278377015     -3.2429857643
 N     -0.4591862405     -0.8465958657     -0.2241091007
 C     -0.6469629359      0.2233299951     -1.0773258124
 C     -0.6503877917     -0.2587156255     -2.4081273041
 C     -0.7821874034      1.6009035739     -0.8233601191
 C     -0.8970069008      2.4609360611     -1.8995478108
 C     -0.9761642879      2.0105307678     -3.2467247560
 C     -0.8419940867      0.6443202784     -3.4575323390
 C     -0.3782418425     -0.7534359215      1.1640707615
 C      1.0163193773     -0.4820496202      1.7212462649
 C      1.1074747610     -0.5439750619      3.2118453579
 C      2.4822564820     -0.2660140269      3.7974502993
 P      2.6130085401     -0.3485559865      5.5896112724
 O      4.1625110448      0.0210022304      5.9092412602
 O      1.9547936565      1.1553398891      5.7649530582
 O      2.1538302251     -1.6434739988      6.1592183811
 C     -1.1352559988      2.9731363622     -4.3823992933
 C     -0.1130284842     -5.1100423731     -3.8428236037
 H     -0.0761123787     -3.5940640361      0.5615606536
 H     -0.5290339113     -2.5289721508     -4.3138944727
 H     -0.8037356218      2.0043006501      0.1834804781
 H     -0.9186440766      3.5307577799     -1.6935694086
 H     -0.8841726577      0.2753488447     -4.4817351369
 H     -1.0422972133      0.0448144856      1.3991405015
 H     -0.7635095617     -1.7174148406      1.5512889554
 H      1.3027572173      0.5210958790      1.3991000647
 H      1.6713349735     -1.2212080117      1.2620121181
 H      0.4816145416      0.2497743405      3.5295656100
 H      0.7090026589     -1.4883666744      3.5865747407
 H      3.2515479544     -0.9143561320      3.3798510448
 H      2.8057555660      0.7524706516      3.5244216511
 H      4.4746922470     -0.5650550617      6.5991141398
 H      0.0976599233     -5.3483452880     -1.1724595743
 H      2.6893119484      1.8976899678      5.8856045347
 H     -0.0929501076     -6.1181303509     -3.3823923192
 H      0.8054421310     -4.9802507053     -4.4384757834
 H     -0.9279929950     -5.1366907103     -4.5849942885
 H     -1.0518043650      2.4797466999     -5.3687001421
 H     -0.3575050155      3.7622756480     -4.4048801389
 H     -2.1018425020      3.5325564368     -4.3983997373
90
# ORCA AIMD Position Step 40, t=20.00 fs, E_Pot=-6935455.79267148 kJ mol^-1, Unit is Angstrom
 C     -3.0342804911     -3.7751876401     -1.1523490275
 C     -2.9180487983     -4.0464852254      0.2164791593
 C     -2.9276634874     -3.0416529093      1.2034871505
 C     -3.1602662257     -1.7509197786      0.7265986510
 C     -3.3259190867     -1.4604136101     -0.6459244663
 C     -3.2418913453     -2.4836244331     -1.5925964188
 N     -3.2802000578     -0.5973973259      1.4740908602
 C     -3.4402875249      0.4549686515      0.5902766334
 C     -3.4935402052     -0.0443605290     -0.7294231804
 C     -3.5521988509      1.8225716362      0.8442138024
 C     -3.7259426225      2.6571163863     -0.2508724094
 C     -3.7591710877      2.2068112118     -1.5807294134
 C     -3.6230395072      0.8521652634     -1.8227037792
 C     -3.2755618939     -0.4799642421      2.9353596814
 C     -1.9106772468     -0.2464317056      3.5256122117
 C     -1.8570448348     -0.2365866558      5.0444417978
 C     -0.4280773841     -0.0148427279      5.5413487197
 P     -0.2702456077     -0.1510972299      7.3102608792
 O      1.1706530017      0.0944473475      8.2399005388
 O     -1.0190578579      1.2271266259      7.7600421352
 O     -0.7457171029     -1.4400468052      7.8588336964
 C     -4.0052688042      3.1875981676     -2.6859902742
 C     -3.0070488064     -4.9028205521     -2.1483112633
 H     -2.8192369168     -3.2872675677      2.2500352707
 H     -3.3554151428     -2.2420148274     -2.6441113242
 H     -3.5238838998      2.1773876264      1.8535192089
 H     -3.8263278056      3.7253230689     -0.0589986481
 H     -3.5845305880      0.4683970817     -2.8414316397
 H     -3.9453045602      0.3411073921      3.1765200307
 H     -3.7483429527     -1.4068312835      3.3259859920
 H     -1.4660076434      0.6807077955      3.1370921636
 H     -1.2597204555     -1.0584582631      3.1599668118
 H     -2.4871710344      0.5614191288      5.4648635152
 H     -2.2639311693     -1.1970405997      5.4282864279
 H      0.1985693543     -0.8315813973      5.1380657034
 H      0.0035305295      0.9103473049      5.1434872344
 H      1.0299085218     -0.7203334464      8.7222271776
 H     -2.7631681606     -5.0630357970      0.5443613142
 H     -1.1166760030      1.2188269099      8.7226326838
 H     -2.7049015716     -5.8409454509     -1.6927597324
 H     -2.3452196658     -4.6745356874     -2.9890368565
 H     -4.0171122367     -5.0288713877     -2.5481160937
 H     -3.9960044396      2.7025459122     -3.6616917064
 H     -3.2196651048      3.9558937705     -2.6919998270
 H     -4.9899476403      3.6438296398     -2.5303779662
 C     -0.2028400192     -4.0327722380     -2.8196680721
 C     -0.0466303221     -4.3105845308     -1.4642100860
 C     -0.1255300677     -3.3137852328     -0.4847705186
 C     -0.3060078766     -2.0114223669     -0.9496254844
 C     -0.4529906932     -1.6877999440     -2.3183312162
 C     -0.4287672993     -2.7279520363     -3.2558207477
 N     -0.4338539513     -0.8473585795     -0.2558065682
 C     -0.6289160683      0.2182405523     -1.0992011506
 C     -0.6458243693     -0.2672404525     -2.4083920899
 C     -0.7567885754      1.5862502797     -0.8220371124
 C     -0.8723999019      2.4521729810     -1.9051739230
 C     -0.9625516543      2.0081532042     -3.2409571182
 C     -0.8457220728      0.6405854089     -3.4726394361
 C     -0.3437425004     -0.7611932252      1.1630668391
 C      1.0541741070     -0.4867460291      1.6744529549
 C      1.1318053083     -0.5529875171      3.1815341416
 C      2.5118160395     -0.2761603804      3.7652173874
 P      2.6333031049     -0.3416644325      5.5805371612
 O      4.1859649479      0.0161043719      5.9077509680
 O      2.0125016796      1.2484679380      5.6754278687
 O      2.1575484415     -1.6475190644      6.1420558142
 C     -1.1289655929      2.9838900787     -4.3975356558
 C     -0.0904751845     -5.1200451954     -3.8592895147
 H     -0.0519709755     -3.5656144403      0.5762227924
 H     -0.5691468709     -2.5263538378     -4.3119566103
 H     -0.7494832034      1.9828687487      0.1880026696
 H     -0.9635046814      3.5135374926     -1.6818728331
 H     -0.8788359448      0.2712294054     -4.4953212591
 H     -1.0230730966      0.0450663229      1.4767605374
 H     -0.7504225825     -1.6615057710      1.5968968576
 H      1.3373650519      0.5399519413      1.3746337190
 H      1.7610218034     -1.1988671772      1.2061586544
 H      0.4455390984      0.2130440172      3.5693319484
 H      0.7293869010     -1.4999305782      3.5771221383
 H      3.2634661689     -0.9540495754      3.3078508493
 H      2.8416079124      0.7179814431      3.4538447627
 H      4.5591411176     -0.6673356034      6.5015412034
 H      0.0847685280     -5.3512468458     -1.1567367122
 H      2.7623669576      1.7611261374      5.5365811711
 H     -0.1152618671     -6.0981961562     -3.3891880867
 H      0.8406236872     -5.0141303659     -4.4330129503
 H     -0.9285027210     -5.0793276132     -4.5736302234
 H     -1.0082332902      2.4717499108     -5.3524738472
 H     -0.3383607614      3.7419363597     -4.3702179804
 H     -2.0642796108      3.5030537518     -4.4126581684
90
# ORCA AIMD Position Step 50, t=25.00 fs, E_Pot=-6935504.36013089 kJ mol^-1, Unit is Angstrom
 C     -3.0610514250     -3.7910780495     -1.1497343285
 C     -2.9228186684     -4.0356862750      0.2327522734
 C     -2.9389592302     -3.0398100752      1.1773178047
 C     -3.1796793747     -1.7520762431      0.7476793908
 C     -3.3351062914     -1.4636987678     -0.6372103780
 C     -3.2588109998     -2.4800297042     -1.5895804323
 N     -3.2862829126     -0.5806803028      1.4766267502
 C     -3.4595357174      0.4580192151      0.5886576749
 C     -3.4993750412     -0.0434727728     -0.7356108115
 C     -3.5497564823      1.8085781048      0.8519555910
 C     -3.7339340694      2.6586754844     -0.2441398334
 C     -3.7727942530      2.1976238317     -1.5719337252
 C     -3.6500944055      0.8358126557     -1.8228821153
 C     -3.2981694048     -0.4822275586      2.9471837184
 C     -1.9303125592     -0.2468071338      3.5548085384
 C     -1.9249086750     -0.2233983690      5.0982781867
 C     -0.4462153367     -0.0225952642      5.5556602943
 P     -0.2768757852     -0.1436906245      7.3672347397
 O      1.1238293560      0.0640744723      8.3330130556
 O     -1.0439023187      1.2377678460      7.7506176247
 O     -0.7907474881     -1.4763241752      7.8504004635
 C     -4.0259452920      3.1914778401     -2.6807951739
 C     -3.0489367960     -4.9088350595     -2.1416582889
 H     -2.8193423909     -3.2703446970      2.2399435109
 H     -3.3783699115     -2.2582005883     -2.6494428754
 H     -3.5201462847      2.2132089644      1.8797583579
 H     -3.8134441893      3.7273719945     -0.0658765553
 H     -3.6147358999      0.4805298298     -2.8464000297
 H     -3.9885692152      0.3425631297      3.2130954291
 H     -3.7446904505     -1.3806320053      3.3567784080
 H     -1.5007464628      0.6716281064      3.1425792797
 H     -1.2979298877     -1.0496163675      3.2450294878
 H     -2.6001879642      0.5256627082      5.5199546469
 H     -2.2556294875     -1.1917766227      5.4528520732
 H      0.0966622584     -0.8212545215      5.1084678697
 H     -0.0498826839      0.9208525055      5.2020206009
 H      1.1377380156     -0.8729188643      8.6868952034
 H     -2.7432846948     -5.0777007061      0.5244426679
 H     -1.1487723713      1.3377263936      8.7114215645
 H     -2.6711886921     -5.8358528245     -1.6901419618
 H     -2.4508889562     -4.6474620621     -2.9995656380
 H     -4.0851337015     -5.0759859593     -2.4646099415
 H     -4.0119842008      2.6834779007     -3.6469567850
 H     -3.2879727541      3.9900687670     -2.6537571452
 H     -4.9988740467      3.6643254458     -2.5356780358
 C     -0.1838735410     -4.0283369729     -2.8305617060
 C     -0.0307432864     -4.3046335522     -1.4608671161
 C     -0.0943614177     -3.2978345594     -0.4974919285
 C     -0.2908253780     -2.0039677815     -0.9704208039
 C     -0.4429710986     -1.6874100587     -2.3350812412
 C     -0.4208266924     -2.7239345797     -3.2613862209
 N     -0.4095859445     -0.8419682596     -0.2689638080
 C     -0.6080375225      0.2215937108     -1.1134873361
 C     -0.6451250716     -0.2675283989     -2.4249949955
 C     -0.7253580381      1.5731683145     -0.8276268339
 C     -0.8546041677      2.4452118362     -1.9054537444
 C     -0.9480164621      2.0039570824     -3.2371114470
 C     -0.8451927637      0.6315452847     -3.4852713817
 C     -0.3141212936     -0.7571428607      1.1627475564
 C      1.0986719198     -0.4904325797      1.6312476824
 C      1.1521432921     -0.5571407594      3.1589845114
 C      2.5525412969     -0.2979378283      3.7218462160
 P      2.6521868046     -0.3323255032      5.5599959037
 O      4.2044485941      0.0068540700      5.9121982728
 O      2.0581078660      1.3041238515      5.6211457861
 O      2.1611875927     -1.6322310623      6.1313264140