78
# ORCA AIMD Position Step 0, t=0.00 fs, E_Pot=-8082321.05549101 kJ mol^-1, Unit is Angstrom
 C     -3.2812140147     -3.7216430167     -1.9360450087
 C     -1.9597140088     -4.0381430181     -1.6154450072
 C     -0.9528140043     -3.0665430137     -1.6312450073
 C     -1.3008140058     -1.7539430079     -1.9895450089
 C     -2.6080140117     -1.4080430063     -2.3332450104
 C     -3.6055140161     -2.4079430108     -2.3093450103
 N     -0.5410140024     -0.6044430027     -2.0936450094
 C     -1.3157140059      0.4634570021     -2.5056450112
 C     -2.6173140117     -0.0152430001     -2.6576450119
 C     -0.9855140044      1.8038570081     -2.7637450124
 C     -2.0045140090      2.6697570120     -3.1756450142
 C     -3.3208140149      2.2273570100     -3.3206450149
 C     -3.6273140162      0.8796570039     -3.0750450138
 C      0.8869860040     -0.5282430024     -1.8133450081
 C      1.7249860077     -0.8016430036     -3.0627450137
 C      3.2303860145     -0.8199430037     -2.7914450125
 C      4.0697970182     -1.0925360049     -4.0362080181
 P      5.8304950261     -1.2277410055     -3.7602070168
 O      6.2099290278      0.0118690001     -2.8213970126
 O      6.0408430271     -2.4429930109     -2.7402750123
 O      6.6724980299     -1.3130280059     -4.9864100223
 I     -4.8658140218      3.5991570161     -3.9152450175
 H      5.2763460236     -2.7016180121     -2.1964350098
 H     -1.6963140076     -5.0588430227     -1.3443450060
 H      0.0660860003     -3.3366430149     -1.3742450062
 H     -4.6254140207     -2.1506430096     -2.5815450116
 H      0.0286860001      2.1732570097     -2.6537450119
 H     -1.7551140079      3.7088570166     -3.3828450152
 H     -4.6431140208      0.5158570023     -3.2028450143
 H      1.0890860049      0.4650570021     -1.4004450063
 H      1.1145860050     -1.2492430056     -1.0206450046
 H      1.4990860067     -0.0588430003     -3.8379450172
 H      1.4407860065     -1.7754430080     -3.4817450156
 H      3.4348720154     -1.5944520071     -2.0443660092
 H      3.5375250158      0.1302330006     -2.3394970105
 H      3.7291390167     -2.0157710090     -4.5181020202
 H      3.9235180176     -0.2825930013     -4.7584340213
 H     -4.0406140181     -4.4744430200     -1.8975450085
 H      7.1799160322      0.0840560004     -2.7233250122
 C     -2.4298870109     -2.9650500133      1.1555590052
 C     -1.1083870050     -3.2815500147      1.4761590066
 C     -0.1014870005     -2.3099500103      1.4603590065
 C     -0.4494870020     -0.9973500045      1.1020590049
 C     -1.7566870079     -0.6514500029      0.7583590034
 C     -2.7541870123     -1.6513500074      0.7822590035
 N      0.3103130014      0.1521500007      0.9979590045
 C     -0.4643870021      1.2200500055      0.5859590026
 C     -1.7659870079      0.7413500033      0.4339590019
 C     -0.1341870006      2.5604500115      0.3278590015
 C     -1.1531870052      3.4263500153     -0.0840410004
 C     -2.4694870111      2.9839500134     -0.2290410010
 C     -2.7759870124      1.6362500073      0.0165590001
 C      1.7383130078      0.2283500010      1.2782590057
 C      2.5763130115     -0.0450500002      0.0288590001
 C      4.0817130183     -0.0633500003      0.3001590013
 C      4.9211230220     -0.3359430015     -0.9446040042
 P      6.6818210299     -0.4711480021     -0.6686030030
 O      7.0612550316      0.7684610034      0.2702080012
 O      6.8921690309     -1.6864000076      0.3513300016
 O      7.5238240337     -0.5564360025     -1.8948060085
 I     -4.0144870180      4.3557500195     -0.8236410037
 H      6.1276730274     -1.9450260087      0.8951690040
 H     -0.8449870038     -4.3022500193      1.7472590078
 H      0.9174130041     -2.5800500116      1.7173590077
 H     -3.7740870169     -1.3940500062      0.5100590023
 H      0.8800130039      2.9298500131      0.4378590020
 H     -0.9037870040      4.4654500200     -0.2912410013
 H     -3.7917870170      1.2724500057     -0.1112410005
 H      1.9404130087      1.2216500055      1.6911590076
 H      1.9659130088     -0.4926500022      2.0709590093
 H      2.3504130105      0.6977500031     -0.7463410033
 H      2.2921130103     -1.0188500046     -0.3901410017
 H      4.2861980192     -0.8378600038      1.0472380047
 H      4.3888510197      0.8868260040      0.7521070034
 H      4.5804650205     -1.2591790056     -1.4264970064
 H      4.7748440214      0.4739990021     -1.6668300075
 H     -3.1892870143     -3.7178500167      1.1940590053
 H      8.0312420360      0.8406480038      0.3682790016
78
# ORCA AIMD Position Step 10, t=5.00 fs, E_Pot=-8082599.08369724 kJ mol^-1, Unit is Angstrom
 C     -3.2712043378     -3.7102313457     -1.9335763954
 C     -1.9602253599     -3.9992826859     -1.5809064342
 C     -0.9353161910     -3.0632541735     -1.6337319601
 C     -1.2789179123     -1.7695662306     -1.9784457008
 C     -2.6330228737     -1.4025945655     -2.3430802245
 C     -3.6177024677     -2.3889504612     -2.3175577697
 N     -0.5267532093     -0.6121293306     -2.1002822896
 C     -1.2996194049      0.4540713468     -2.5096172729
 C     -2.6417736585      0.0011462198     -2.6618254492
 C     -0.9809378285      1.7734347215     -2.7739887438
 C     -1.9902821998      2.6646728915     -3.1912977683
 C     -3.3131673436      2.2133478514     -3.3160782672
 C     -3.6134975656      0.8759018197     -3.0744785016
 C      0.8540570862     -0.5264083937     -1.8307952409
 C      1.7283486103     -0.8001457817     -3.0551581848
 C      3.2256805254     -0.8254570283     -2.8020381841
 C      4.0655559823     -1.0961949881     -4.0349039607
 P      5.8311706013     -1.2123526797     -3.7764744026
 O      6.1410298047      0.0666370279     -2.8709911189
 O      6.0480505997     -2.4562301945     -2.7429557580
 O      6.6532418572     -1.3283489362     -4.9890651352
 I     -4.8672133306      3.6022166299     -3.9165435795
 H      5.2846543240     -2.6904201032     -2.2236089736
 H     -1.6746956857     -5.0066481124     -1.2961344800
 H      0.0784056950     -3.3663599112     -1.3952722315
 H     -4.6267141066     -2.0528869962     -2.5598247639
 H      0.0254870108      2.1591225035     -2.6566486277
 H     -1.7532296402      3.7085326937     -3.3517776923
 H     -4.6505428167      0.5575290718     -3.1919134846
 H      1.0289603476      0.4592880674     -1.4497144506
 H      0.9927883674     -1.2534923344     -1.0593224802
 H      1.5149363118     -0.0305942724     -3.8267836906
 H      1.4607547640     -1.7422829533     -3.5578470590
 H      3.3524266810     -1.5565102858     -2.0189241708
 H      3.4935214271      0.0900382431     -2.3592326576
 H      3.6979335858     -2.0436793708     -4.4648905379
 H      3.8963378034     -0.3357043477     -4.8192880254
 H     -4.0585954700     -4.4874178943     -1.9310721192
 H      7.2547928018      0.1595721760     -2.8496507699
 C     -2.4190496848     -2.9478087121      1.1628501860
 C     -1.1280427557     -3.2841957756      1.4926917802
 C     -0.1091853946     -2.3173163158      1.4589301510
 C     -0.4651832658     -1.0016762157      1.1063440277
 C     -1.7955288429     -0.6471306203      0.7635112662
 C     -2.7491835807     -1.6419506549      0.7868879702
 N      0.3073160692      0.1551248997      1.0037503898
 C     -0.4545769593      1.2136859738      0.5821838081
 C     -1.7789402549      0.7329620153      0.4369643774
 C     -0.1163805568      2.5461989742      0.3212370323
 C     -1.1437106743      3.4156140327     -0.0863115718
 C     -2.4797218408      2.9618945020     -0.2267416024
 C     -2.7752643988      1.6239952991      0.0102086130
 C      1.7297277090      0.2196819582      1.2816605595
 C      2.5982155556     -0.0428589191      0.0351303868
 C      4.0757814236     -0.0756690553      0.3036592819
 C      4.9295321884     -0.3310021156     -0.9351307735
 P      6.6767217964     -0.4632512665     -0.6601480849
 O      7.0568307125      0.7835665506      0.2656922135
 O      6.8935811454     -1.6960972112      0.3452974654
 O      7.5991207131     -0.5809829631     -1.8224651373
 I     -4.0101776121      4.3509084965     -0.8213214418
 H      6.1668794236     -1.9497425711      0.9058689285
 H     -0.8225526063     -4.3046351551      1.7045139098
 H      0.9354238093     -2.5742308374      1.6461028448
 H     -3.7708778857     -1.4159750744      0.4973630506
 H      0.9043815383      2.9379131193      0.3030212545
 H     -0.8923854802      4.4459031223     -0.3301990801
 H     -3.8103411423      1.3173417755     -0.1059339294
 H      1.9539185729      1.2300573436      1.6481194762
 H      1.9813044683     -0.5031478999      2.0683104603
 H      2.3829478522      0.7086850484     -0.6899835043
 H      2.4447639472     -1.0154329272     -0.3537049198
 H      4.2453116499     -0.8592396170      1.0730302459
 H      4.4105441289      0.8485755206      0.7851650084
 H      4.6792207955     -1.2659884145     -1.3265898206
 H      4.8129889735      0.4691017932     -1.6110936068
 H     -3.2357576318     -3.6831561421      1.1575699111
 H      8.0021597447      0.8545839959      0.3991929738
78
# ORCA AIMD Position Step 20, t=10.00 fs, E_Pot=-8082816.27858192 kJ mol^-1, Unit is Angstrom
 C     -3.2760257147     -3.6824726664     -1.9385110586
 C     -1.9561102340     -3.9722257575     -1.5568082116
 C     -0.9190934505     -3.0567163268     -1.6392603036
 C     -1.2797492105     -1.7636864204     -1.9858930294
 C     -2.6485064476     -1.4152928039     -2.3458525248
 C     -3.6247875216     -2.3758188714     -2.3215063631
 N     -0.5245582607     -0.6189247913     -2.1153671751
 C     -1.2999667269      0.4384412536     -2.5197509792
 C     -2.6498360248      0.0083036675     -2.6655959162
 C     -0.9768569814      1.7568293421     -2.7906967242
 C     -1.9777911537      2.6511750206     -3.2023801653
 C     -3.2997242830      2.2016737928     -3.3162663627
 C     -3.6260588476      0.8835632340     -3.0795360196
 C      0.8187874253     -0.5366495303     -1.8671762128
 C      1.7265864083     -0.7980610293     -3.0738006076
 C      3.1883659051     -0.8327539367     -2.8269793677
 C      4.0429258093     -1.1101014598     -4.0398264236
 P      5.8322566098     -1.1939275941     -3.7934589933
 O      6.0315174571      0.1569114403     -3.0138599079
 O      6.0544758479     -2.4789604403     -2.7503930928
 O      6.6400691982     -1.3469880266     -4.9969572387
 I     -4.8680736783      3.6033516827     -3.9197878391
 H      5.2550404224     -2.7520947615     -2.2771412610
 H     -1.6934407913     -4.9815645602     -1.2496279985
 H      0.0937551579     -3.3689067078     -1.4074091390
 H     -4.6433593473     -2.0717469208     -2.5479807206
 H      0.0326708864      2.1410238404     -2.6665342476
 H     -1.7374728842      3.7046073465     -3.3378966272
 H     -4.6504978303      0.5661171452     -3.1799125007
 H      0.9378763298      0.4949967817     -1.5113048092
 H      0.9177076117     -1.2996614343     -1.0775818730
 H      1.5128512804     -0.0051297420     -3.7841748387
 H      1.4130422648     -1.7268567516     -3.5692937510
 H      3.2642420620     -1.6322544105     -2.0682956523
 H      3.4149490402      0.1706107103     -2.4235062710
 H      3.7201525947     -2.0708107984     -4.4526839104
 H      3.8844481860     -0.3810306597     -4.8311932758
 H     -4.0080236039     -4.4583295917     -1.9427684442
 H      6.9461110686      0.2141536374     -2.9414286761
 C     -2.4282779768     -2.9234910292      1.1685259677
 C     -1.1223048162     -3.2804801956      1.5095051354
 C     -0.1181047989     -2.3139903908      1.4543206188
 C     -0.4777332468     -1.0045560720      1.1136279764
 C     -1.8198026350     -0.6536568357      0.7748952021
 C     -2.7583933632     -1.6404333457      0.7950150139
 N      0.3201004210      0.1484490257      1.0169199692
 C     -0.4529801248      1.2081616214      0.5812992916
 C     -1.8016626222      0.7499677727      0.4332139126
 C     -0.1090165964      2.5377269444      0.3071020101
 C     -1.1383309965      3.4009843097     -0.0859899641
 C     -2.4733049963      2.9436438604     -0.2144931789
 C     -2.7862643794      1.6193548320      0.0094683648
 C      1.7290931066      0.2127226795      1.2789614806
 C      2.6395673799     -0.0383932727      0.0658502840
 C      4.0879190933     -0.0825537137      0.3389759251
 C      4.9436994932     -0.3076643004     -0.8668745431
 P      6.6835058634     -0.4578598584     -0.6427340281
 O      7.0479815142      0.8099797127      0.2658421034
 O      6.8992526463     -1.7174848150      0.3376818825
 O      7.7558076190     -0.6355758763     -1.6876157728
 I     -4.0047779892      4.3462173278     -0.8165182773
 H      6.1606428622     -1.9295884284      0.9431503837
 H     -0.8501367370     -4.3156526815      1.6900878525
 H      0.9198004244     -2.5827007981      1.6051746769
 H     -3.7781247225     -1.4370810968      0.4922839298
 H      0.9069332493      2.9014658118      0.2386660523
 H     -0.8894895183      4.4210682880     -0.3507763860
 H     -3.8174736878      1.3038572903     -0.0956555866
 H      1.9726040374      1.2234141885      1.6464802295
 H      1.9810060916     -0.4983664937      2.0792221934
 H      2.4666647358      0.7726674097     -0.6626533119
 H      2.4779289441     -1.0626015988     -0.3266787761
 H      4.2230648841     -0.8711755949      1.0905620789
 H      4.4437256253      0.8450819814      0.8200853239
 H      4.7912416272     -1.3303649763     -1.2737306790
 H      4.8240618250      0.5304813966     -1.5568932253
 H     -3.2141976042     -3.6575552018      1.1363497242
 H      8.0081551461      0.8824293629      0.4176627600
78
# ORCA AIMD Position Step 30, t=15.00 fs, E_Pot=-8082913.65109820 kJ mol^-1, Unit is Angstrom
 C     -3.2755020538     -3.6486995515     -1.9425443189
 C     -1.9559757316     -3.9594061027     -1.5476902464
 C     -0.9096497693     -3.0451008038     -1.6455720409
 C     -1.3039118226     -1.7491770479     -2.0095221404
 C     -2.6404464940     -1.4183658016     -2.3436454334
 C     -3.6355034572     -2.3760736692     -2.3216315346
 N     -0.5545479564     -0.6264090339     -2.1452246031
 C     -1.3200311362      0.4269744047     -2.5384081602
 C     -2.6428270707     -0.0045207111     -2.6670390395
 C     -0.9699839740      1.7527306025     -2.8099666227
 C     -1.9683943354      2.6345424025     -3.2076494567
 C     -3.2879710254      2.2033447625     -3.3244678994
 C     -3.6519251651      0.8930552458     -3.0849589065
 C      0.8107177300     -0.5504659107     -1.8944376390
 C      1.6991821543     -0.7978258715     -3.1147306057
 C      3.1436724790     -0.8351122742     -2.8466089022
 C      4.0160067073     -1.1350071705     -4.0504613940
 P      5.8238323967     -1.1902575542     -3.8097471753
 O      5.9250700682      0.2517754108     -3.1639954339
 O      6.0576325192     -2.4926942982     -2.7638729100
 O      6.6390126883     -1.3657675713     -5.0143962123
 I     -4.8682009706      3.6026832813     -3.9244097023
 H      5.2349715862     -2.8365827284     -2.3826056440
 H     -1.7420335948     -4.9734351545     -1.2178076814
 H      0.1084308839     -3.3381334412     -1.4101031341
 H     -4.6718447964     -2.1552826770     -2.5641356672
 H      0.0418413307      2.1179030745     -2.6886949879
 H     -1.7199259380      3.6764258223     -3.3504168566
 H     -4.6859289344      0.5434613304     -3.1797345568
 H      0.9491022319      0.4667348719     -1.5164791232
 H      0.9859112125     -1.2660697986     -1.1034876745
 H      1.4776566539      0.0412809293     -3.8163435763
 H      1.3361706608     -1.7293298014     -3.5686150980
 H      3.2870069294     -1.6464115730     -2.1409631941
 H      3.3790310774      0.1367053920     -2.4713849525
 H      3.7604778628     -2.1139956621     -4.4884082888
 H      3.8624360639     -0.3756693897     -4.8466163299
 H     -4.0132522428     -4.4717871979     -1.9276338243
 H      6.9703009157      0.3581898083     -2.9087850351
 C     -2.4380518651     -2.9108080225      1.1788824282
 C     -1.1133821574     -3.2694876942      1.5187465498
 C     -0.1241473936     -2.3056214094      1.4495581517
 C     -0.4872931875     -0.9998410408      1.1216210729
 C     -1.8138264800     -0.6478044337      0.7886153020
 C     -2.7868721969     -1.6423422699      0.8027767956
 N      0.3276199897      0.1360057493      1.0276935089
 C     -0.4616933277      1.2022956292      0.5828265535
 C     -1.8097946973      0.7627737225      0.4343743203
 C     -0.1119473090      2.5280661208      0.2882225719
 C     -1.1395427974      3.3849153587     -0.0858105607
 C     -2.4565002475      2.9417584044     -0.1987569351
 C     -2.8105358225      1.6227233222      0.0137062347
 C      1.7446153724      0.2106932893      1.2803622589
 C      2.6715846218     -0.0379793351      0.0931423089
 C      4.1222403636     -0.0795251906      0.4114751589
 C      4.9604021685     -0.2872980258     -0.7931940631
 P      6.7129627581     -0.4566494491     -0.6194648708
 O      7.0379620026      0.8441603487      0.2734523381
 O      6.8976910494     -1.7464701706      0.3373603270
 O      7.8911439030     -0.6799632896     -1.5604360257
 I     -3.9986998714      4.3418890674     -0.8098752438
 H      6.1936788928     -1.8801528504      0.9699441122
 H     -0.8931075864     -4.3178274339      1.7115803858
 H      0.9169960900     -2.5927334754      1.6081447645
 H     -3.8059611343     -1.4370070673      0.4900629224
 H      0.9296554662      2.8589368282      0.2555587171
 H     -0.8954363029      4.4133342971     -0.3535173890
 H     -3.8260280617      1.2546641266     -0.0914148428
 H      1.9641340938      1.2009104453      1.6863604654
 H      1.9677066390     -0.4868680423      2.0951239806
 H      2.5228693168      0.7411740324     -0.6402129263
 H      2.4010130568     -0.9790680168     -0.3260880113
 H      4.2639866101     -0.8965282812      1.1387379849
 H      4.4570233451      0.8444135788      0.8766180468
 H      4.7918446971     -1.2285602973     -1.2633625357
 H      4.7883030818      0.5061989956     -1.4822279080
 H     -3.1984795780     -3.6927095217      1.1402039685
 H      7.9905053616      0.9097704276      0.4068163597
78
# ORCA AIMD Position Step 40, t=20.00 fs, E_Pot=-8082958.81073645 kJ mol^-1, Unit is Angstrom
 C     -3.2720612701     -3.6379890537     -1.9386379890
 C     -1.9557468536     -3.9527498624     -1.5520049670
 C     -0.9168322643     -3.0316332908     -1.6529430179
 C     -1.3297378894     -1.7509799137     -2.0352326358
 C     -2.6390094666     -1.4092410848     -2.3442938775
 C     -3.6480405384     -2.3806755947     -2.3221398171
 N     -0.5839370721     -0.6305722369     -2.1777872248
 C     -1.3419847084      0.4322532165     -2.5632002525
 C     -2.6537812713     -0.0172747187     -2.6758592709
 C     -0.9641740885      1.7472773276     -2.8277030458
 C     -1.9595727140      2.6232272501     -3.2107205027
 C     -3.2911713586      2.2079228126     -3.3381528785
 C     -3.6708571486      0.8908554960     -3.0851607749
 C      0.8183028047     -0.5565846163     -1.9165563937
 C      1.6439191343     -0.7950805835     -3.1683942715
 C      3.1096723177     -0.8466492574     -2.8724889268
 C      3.9925805418     -1.1619634279     -4.0743070793
 P      5.8075293575     -1.1990109684     -3.8285578716
 O      5.8748655958      0.3395657547     -3.2784893136
 O      6.0580300202     -2.4899233875     -2.7804466559
 O      6.6452911263     -1.3837468612     -5.0340093320
 I     -4.8675896571      3.6006636701     -3.9299563460
 H      5.2319057160     -2.9027558946     -2.5069712081
 H     -1.7763342278     -4.9658442413     -1.2045326034
 H      0.1103923387     -3.2829201395     -1.4070545716
 H     -4.6818384336     -2.2014327105     -2.6024014856
 H      0.0590531603      2.0992385902     -2.7184800179
 H     -1.7049552696      3.6662583826     -3.3880354440
 H     -4.6866043673      0.5514178468     -3.1870935692
 H      1.0210386850      0.4203503752     -1.4963225912
 H      1.0719403976     -1.2629267048     -1.1260475497
 H      1.4428015282      0.0043104843     -3.8668660010
 H      1.2861879929     -1.7311670023     -3.6144785634
 H      3.3314669011     -1.6254296533     -2.1214259078
 H      3.4197972389      0.1168711200     -2.4407499778
 H      3.7557683979     -2.1293592993     -4.5307243768
 H      3.8486014138     -0.4044960451     -4.8372841684
 H     -3.9985327233     -4.4192708500     -1.9011905554
 H      6.7169941471      0.4943601632     -2.9514565830
 C     -2.4436539567     -2.9179878788      1.1939928207
 C     -1.1186875784     -3.2537928463      1.5194066979
 C     -0.1209344564     -2.3005633687      1.4493014138
 C     -0.4883315003     -0.9903993980      1.1297541033
 C     -1.8060492134     -0.6367807260      0.7995267425
 C     -2.8141929765     -1.6353829494      0.8102037858
 N      0.3245699114      0.1298003348      1.0293789935
 C     -0.4705158880      1.1979538330      0.5860843380
 C     -1.8053269405      0.7601367306      0.4430073716
 C     -0.1142476334      2.5103435033      0.2726666465
 C     -1.1375016178      3.3788033784     -0.0874365088
 C     -2.4530132378      2.9486007090     -0.1850440735
 C     -2.8320873809      1.6284819529      0.0242921041
 C      1.7637393237      0.2132126965      1.2943547545
 C      2.6919498962     -0.0335020292      0.1209471027
 C      4.1627692690     -0.0790641262      0.5049209038
 C      4.9833799257     -0.2711844679     -0.7391243901
 P      6.7629811738     -0.4604898467     -0.5914952163
 O      7.0270992396      0.8786587493      0.2853542658
 O      6.8900064621     -1.7754679702      0.3436679546
 O      7.9771317173     -0.7024554585     -1.4619921970
 I     -3.9922089452      4.3380658275     -0.8019998584
 H      6.2100761550     -1.8450097220      1.0381830443
 H     -0.9013444960     -4.2893277410      1.7544370578
 H      0.9096137399     -2.5729966366      1.6362017688
 H     -3.8302272876     -1.4179420430      0.4965362888
 H      0.9156303269      2.8380185690      0.3136688111
 H     -0.9082126944      4.4019305270     -0.3361585632
 H     -3.8370760494      1.2424037303     -0.0988504583
 H      1.9467444383      1.2096003847      1.7394940438
 H      1.9727274286     -0.5023873079      2.1063231855
 H      2.5473154687      0.7374662766     -0.6480630728
 H      2.3633512446     -0.9617489539     -0.3590874375
 H      4.3334309719     -0.8961244113      1.2190178341
 H      4.4593111401      0.8685171728      0.9928334198
 H      4.6695387391     -1.1708853602     -1.2903924068
 H      4.7574363429      0.5315167128     -1.4516361283
 H     -3.1792087421     -3.7144255781      1.1690641149
 H      7.9890096934      0.9576669233      0.3939031533
78
# ORCA AIMD Position Step 50, t=25.00 fs, E_Pot=-8082999.08127172 kJ mol^-1, Unit is Angstrom
 C     -3.2658272830     -3.6422428851     -1.9286870030
 C     -1.9531155189     -3.9506776034     -1.5636845062
 C     -0.9375446039     -3.0214813558     -1.6612650253
 C     -1.3425120432     -1.7625388267     -2.0564683477
 C     -2.6692592364     -1.4030495183     -2.3520668253
 C     -3.6542159787     -2.3804315140     -2.3255366513
 N     -0.5871030513     -0.6275287313     -2.2011394654
 C     -1.3555399514      0.4422726527     -2.5874956079
 C     -2.6869290222     -0.0141162195     -2.6944248042
 C     -0.9602355088      1.7393696710     -2.8438481162
 C     -1.9576064386      2.6246752941     -3.2182285732
 C     -3.3047859769      2.2054360076     -3.3517186873
 C     -3.6738913869      0.8851693387     -3.0829072352
 C      0.8202240789     -0.5602470758     -1.9416316456
 C      1.5911548589     -0.7997309896     -3.2164029954
 C      3.0907921087     -0.8637232810     -2.9001208559
 C      3.9755426971     -1.1887097453     -4.1013533210
 P      5.7896669259     -1.2113538385     -3.8533231851
 O      5.8345836204      0.4009074883     -3.3683405923
 O      6.0569585853     -2.4701997284     -2.7970941695
 O      6.6508133603     -1.3994940834     -5.0468873090
 I     -4.8663528039      3.5976579313     -3.9362310749
 H      5.2266776402     -2.9516904654     -2.6179610960
 H     -1.7624898013     -4.9580910352     -1.2044009712
 H      0.0924618123     -3.2317765171     -1.4020028137
 H     -4.6755393012     -2.1844738020     -2.6384265279
 H      0.0627204913      2.0754483911     -2.7506497539
 H     -1.7003612742      3.6537540771     -3.4290177840
 H     -4.7187452067      0.5690256435     -3.1994243493
 H      1.0552010391      0.4238279007     -1.5057805185
 H      1.0598712117     -1.3199772127     -1.1999210072
 H      1.3927447072     -0.0009351161     -3.9695887912
 H      1.2628214992     -1.7366088281     -3.6854515150
 H      3.2664144544     -1.5952546142     -2.1130194439
 H      3.4193363902      0.0663520026     -2.4679373233
 H      3.6957119961     -2.1450610231     -4.5682783054
 H      3.8354832763     -0.4116079342     -4.8822970355
 H     -4.0386092065     -4.4266936875     -1.8704931303
 H      6.7486067610      0.6970164761     -2.9548966592
 C     -2.4519684474     -2.9244904971      1.2069452406
 C     -1.1306487476     -3.2376703122      1.5175097389
 C     -0.1153791282     -2.2944147553      1.4536933422
 C     -0.4803786178     -0.9856949041      1.1380931139
 C     -1.8169326131     -0.6363535675      0.8069969572
 C     -2.8215373754     -1.6243387628      0.8216717162
 N      0.3223117845      0.1347478047      1.0239405061
 C     -0.4728221410      1.1940843157      0.5901559496
 C     -1.8071325870      0.7535939475      0.4528047185
 C     -0.1170644416      2.4910075740      0.2645909042
 C     -1.1310787824      3.3788863568     -0.0886558276
 C     -2.4683566822      2.9539820279     -0.1744816930
 C     -2.8345077819      1.6319550361      0.0421830236
 C      1.7708872951      0.2196007580      1.3218809657
 C      2.7099031182     -0.0276851834      0.1488727610
 C      4.1978832510     -0.0757937106      0.5946611253
 C      5.0039328899     -0.2582994026     -0.7150641820
 P      6.8218253281     -0.4690591757     -0.5585837405
 O      7.0197488621      0.9078926837      0.2991788554
 O      6.8751044039     -1.8021390210      0.3609841551
 O      8.0240414649     -0.7060263374     -1.3945859344
 I     -3.9854676209      4.3348065345     -0.7932148960
 H      6.2497706934     -1.8247717977      1.0930005287
 H     -0.8753873608     -4.2586894433      1.7995695010
 H      0.9219276498     -2.5498650650      1.6777284848
 H     -3.8400513002     -1.3936540995      0.5167790829
 H      0.9083921168      2.8527730228      0.3664762243
 H     -0.8994265140      4.4225724085     -0.3154952434
 H     -3.8520305404      1.2792922947     -0.1058546960
 H      1.9411471025      1.1997938900      1.7634407665
 H      1.9873611473     -0.5204855294      2.0973961594
 H      2.5980816207      0.7596256151     -0.5977755944
 H      2.4656360804     -0.9625765859     -0.3158048446
 H      4.3769827353     -0.8859007149      1.3145101908
 H      4.4539083258      0.8490741912      1.1016664986
 H      4.6020800320     -1.1150956758     -1.2126607463
 H      4.7995950618      0.5848059685     -1.3554487691
 H     -3.1852741816     -3.7245195929      1.2133223626
 H      7.9786847952      1.0414001021      0.3936294651
78
# ORCA AIMD Position Step 60, t=30.00 fs, E_Pot=-8083020.68162804 kJ mol^-1, Unit is Angstrom
 C     -3.2731191491     -3.6580599058     -1.9183376504
 C     -1.9534473394     -3.9587899084     -1.5765656517
 C     -0.9581407135     -3.0139018973     -1.6704606566
 C     -1.3507657762     -1.7579473278     -2.0765292016
 C     -2.7080405326     -1.4014188665     -2.3653483964
 C     -3.6584758761     -2.3818234977     -2.3310655034
 N     -0.5809210844     -0.6203649353     -2.2152268404
 C     -1.3640499028      0.4387233103     -2.6064364036
 C     -2.7143695755     -0.0039315943     -2.7140266789
 C     -0.9638124215      1.7361634848     -2.8616385408
 C     -1.9693394632      2.6313763082     -3.2327647559
 C     -3.3135159142      2.2005276604     -3.3619334111
 C     -3.6849597994      0.8875070635     -3.0868305410
 C      0.8111400160     -0.5625987827     -1.9739514435
 C      1.5629230883     -0.8046282878     -3.2656547309
 C      3.0714677233     -0.8827791464     -2.9361761612
 C      3.9595094622     -1.2110544238     -4.1333088362
 P      5.7748218041     -1.2186693264     -3.8837563299
 O      5.8186117090      0.4381304145     -3.4279654463
 O      6.0518343072     -2.4394586345     -2.8100398257
 O      6.6530559674     -1.4131697957     -5.0532982195
 I     -4.8646642596      3.5938812772     -3.9431385336
 H      5.2553547450     -2.9650486045     -2.7005179931
 H     -1.7133803788     -4.9523079633     -1.2144204163
 H      0.0703953636     -3.2201065975     -1.3960175292
 H     -4.6738565871     -2.1544342871     -2.6449489105
 H      0.0730751092      2.0573221941     -2.7790062139
 H     -1.7033321215      3.6620626992     -3.4616060751
 H     -4.7105818911      0.5934935391     -3.1977702632
 H      1.0438150497      0.3990592112     -1.5511167145
 H      1.0131846735     -1.3777141582     -1.2756391740
 H      1.3567809704     -0.0337533337     -3.9965228927
 H      1.2370192499     -1.7477411763     -3.7274400403
 H      3.1470207573     -1.6365103082     -2.1327071578
 H      3.3872199958      0.0868609352     -2.5323346192
 H      3.6412596383     -2.1571401133     -4.5907089693
 H      3.8272993563     -0.4537911320     -4.9014711167
 H     -4.0216729945     -4.4186126653     -1.8459870178
 H      6.6222683444      0.7557271405     -3.1231243606
 C     -2.4656586728     -2.9196281261      1.2155810113
 C     -1.1363001941     -3.2270682986      1.5195786146
 C     -0.1103352220     -2.2840169690      1.4623774462
 C     -0.4730595961     -0.9854359355      1.1436706528
 C     -1.8319536109     -0.6456703192      0.8137436030
 C     -2.8147226977     -1.6198694845      0.8380067981
 N      0.3279612134      0.1443967554      1.0173875730